// Variant
wsmlVariant _"http://www.wsmo.org/wsml/wsml-syntax/wsml-rule"

// Namespace
namespace {
	_"br.com.devdaniellima/RepositoryOntology/Packages"
}

// Definition
ontology openmolcas
	nfp
		dc#title hasValue "Repository Packages"
		dc#contributor hasValue "Daniel Lima"
		dc#format hasValue "text/plain"
		dc#language hasValue "en-US" 
	endnfp

importsOntology {
	_"../Repository.wsml"
}

// Sources instances

instance Source__S1 memberOf Source
	uri hasValue "http://br.archive.ubuntu.com/ubuntu"

// Packages instances

instance P0__openmolcas memberOf Package
	package hasValue "openmolcas"
	packageSource hasValue Source__S1
	priority hasValue "optional"
	section hasValue "universe/science"
	installedSize hasValue "157988"
	maintainer hasValue "Original-Debichem Team <debichem-devel@lists.alioth.debian.org>"
	architecture hasValue "amd64"
	version hasValue "19.11-1build1"
	fileName hasValue "pool/universe/o/openmolcas/openmolcas_19.11-1build1_amd64.deb"
	size hasValue "25431708"
	md5sum hasValue "887f162f6fcb4bf5a92a4d5a4f2cd73a"
	sha1 hasValue "c351b2c59b3d459b2c23cd5daa2d5b90bf66e01f"
	sha256 hasValue "105163ab1b71a2a5d0c1fd5fd243e99c7b74c935106d20b7ed4547a7f0bbb1fb"
	descriptionMd5 hasValue "8c077a6871ec491072530378e16f6759"
	homepage hasValue "https://gitlab.com/Molcas/OpenMolcas"
	depends hasValue "libc6 (>= 2.29), libgfortran5 (>= 8), libgomp1 (>= 4.4), libopenblas64-0, perl:any, openmolcas-data (= 19.11-1build1), python3, python3-pyparsing, python3-six"

instance DepAtom__0 memberOf DependencyAtom
	package hasValue "libc6"
	comparison hasValue ">="
	version hasValue "2.29"

relationInstance depends(P0__openmolcas,0,DepAtom__0)

instance DepAtom__1 memberOf DependencyAtom
	package hasValue "libgfortran5"
	comparison hasValue ">="
	version hasValue "8"

relationInstance depends(P0__openmolcas,1,DepAtom__1)

instance DepAtom__2 memberOf DependencyAtom
	package hasValue "libgomp1"
	comparison hasValue ">="
	version hasValue "4.4"

relationInstance depends(P0__openmolcas,2,DepAtom__2)

instance DepAtom__3 memberOf DependencyAtom
	package hasValue "libopenblas64-0"
	comparison hasValue ""
	version hasValue ""

relationInstance depends(P0__openmolcas,3,DepAtom__3)

instance DepAtom__4 memberOf DependencyAtom
	package hasValue "perl:any"
	comparison hasValue ""
	version hasValue ""

relationInstance depends(P0__openmolcas,4,DepAtom__4)

instance DepAtom__5 memberOf DependencyAtom
	package hasValue "openmolcas-data"
	comparison hasValue "="
	version hasValue "19.11-1build1"

relationInstance depends(P0__openmolcas,5,DepAtom__5)

instance DepAtom__6 memberOf DependencyAtom
	package hasValue "python3"
	comparison hasValue ""
	version hasValue ""

relationInstance depends(P0__openmolcas,6,DepAtom__6)

instance DepAtom__7 memberOf DependencyAtom
	package hasValue "python3-pyparsing"
	comparison hasValue ""
	version hasValue ""

relationInstance depends(P0__openmolcas,7,DepAtom__7)

instance DepAtom__8 memberOf DependencyAtom
	package hasValue "python3-six"
	comparison hasValue ""
	version hasValue ""

relationInstance depends(P0__openmolcas,8,DepAtom__8)

