// Variant
wsmlVariant _"http://www.wsmo.org/wsml/wsml-syntax/wsml-rule"

// Namespace
namespace {
	_"br.com.devdaniellima/RepositoryOntology/Packages"
}

// Definition
ontology openmolcas_data
	nfp
		dc#title hasValue "Repository Packages"
		dc#contributor hasValue "Daniel Lima"
		dc#format hasValue "text/plain"
		dc#language hasValue "en-US" 
	endnfp

importsOntology {
	_"../Repository.wsml"
}

// Sources instances

instance Source__S1 memberOf Source
	uri hasValue "http://br.archive.ubuntu.com/ubuntu"

// Packages instances

instance P0__openmolcas_data memberOf Package
	package hasValue "openmolcas-data"
	packageSource hasValue Source__S1
	priority hasValue "optional"
	section hasValue "universe/science"
	installedSize hasValue "68580"
	maintainer hasValue "Original-Debichem Team <debichem-devel@lists.alioth.debian.org>"
	architecture hasValue "all"
	version hasValue "19.11-1build1"
	fileName hasValue "pool/universe/o/openmolcas/openmolcas-data_19.11-1build1_all.deb"
	size hasValue "17330708"
	md5sum hasValue "1dfcc2c1ba0450a0eccc9c2451c8d5d2"
	sha1 hasValue "77393e20b0d1c7e862e792c2a65bdd000aa78768"
	sha256 hasValue "749a307c20682ca8ca5e665e5ddc29faac50cbe53a2e7b471f615d2858b2673e"
	descriptionMd5 hasValue "c654fc6edad78e8dc515a61b5b348b18"
	homepage hasValue "https://gitlab.com/Molcas/OpenMolcas"
